<?xml version="1.0" encoding="UTF-8"?>

<!-- generated on 2024-04-15 16:18:34 by Eclipse SUMO sumo Version 1.19.0
<configuration xmlns:xsi="http://www.w3.org/2001/XMLSchema-instance" xsi:noNamespaceSchemaLocation="http://sumo.dlr.de/xsd/sumoConfiguration.xsd">

    <input>
        <net-file value="Data\Test1\mainofframp.net.xml"/>
        <route-files value="Data\Test1\mainofframp.rou.xml"/>
    </input>

    <output>
        <precision value="2"/>
        <precision.geo value="6"/>
        <human-readable-time value="false"/>
        <fcd-output value="Data\Test1\mainofframp-fcd.xml"/>
        <queue-output value="Data\Test1\mainofframp-queue.xml"/>
    </output>

    <time>
        <begin value="0"/>
        <end value="500"/>
    </time>

    <traci_server>
        <remote-port value="52803"/>
    </traci_server>

</configuration>
-->

<queue-export xmlns:xsi="http://www.w3.org/2001/XMLSchema-instance" xsi:noNamespaceSchemaLocation="http://sumo.dlr.de/xsd/queue_file.xsd">
    <data timestep="0.00">
        <lanes>
            <lane id="-840329606#2_0" queueing_time="0.00" queueing_length="0.00" queueing_length_experimental="6.70"/>
        </lanes>
    </data>
    <data timestep="1.00">
        <lanes>
            <lane id="156268076#1_0" queueing_time="0.00" queueing_length="0.00" queueing_length_experimental="20.89"/>
        </lanes>
    </data>
    <data timestep="2.00">
        <lanes/>
    </data>
    <data timestep="3.00">
        <lanes>
            <lane id="-840329606#2_0" queueing_time="0.00" queueing_length="0.00" queueing_length_experimental="6.70"/>
        </lanes>
    </data>
    <data timestep="4.00">
        <lanes/>
    </data>
    <data timestep="5.00">
        <lanes/>
    </data>
    <data timestep="6.00">
        <lanes>
            <lane id="-840329606#2_0" queueing_time="0.00" queueing_length="0.00" queueing_length_experimental="6.70"/>
        </lanes>
    </data>
    <data timestep="7.00">
        <lanes/>
    </data>
    <data timestep="8.00">
        <lanes/>
    </data>
    <data timestep="9.00">
        <lanes>
            <lane id="-840329606#2_0" queueing_time="0.00" queueing_length="0.00" queueing_length_experimental="6.70"/>
        </lanes>
    </data>
    <data timestep="10.00">
        <lanes/>
    </data>
    <data timestep="11.00">
        <lanes/>
    </data>
    <data timestep="12.00">
        <lanes>
            <lane id="-840329606#2_0" queueing_time="0.00" queueing_length="0.00" queueing_length_experimental="6.70"/>
        </lanes>
    </data>
    <data timestep="13.00">
        <lanes>
            <lane id="150872239_0" queueing_time="1.00" queueing_length="6.06" queueing_length_experimental="6.06"/>
        </lanes>
    </data>
    <data timestep="14.00">
        <lanes>
            <lane id="150872239_0" queueing_time="2.00" queueing_length="6.00" queueing_length_experimental="6.00"/>
        </lanes>
    </data>
    <data timestep="15.00">
        <lanes>
            <lane id="-840329606#2_0" queueing_time="0.00" queueing_length="0.00" queueing_length_experimental="6.70"/>
            <lane id="150872239_0" queueing_time="3.00" queueing_length="6.00" queueing_length_experimental="6.00"/>
        </lanes>
    </data>
    <data timestep="16.00">
        <lanes>
            <lane id="150872239_0" queueing_time="4.00" queueing_length="6.00" queueing_length_experimental="6.00"/>
        </lanes>
    </data>
    <data timestep="17.00">
        <lanes>
            <lane id="150872239_0" queueing_time="5.00" queueing_length="6.00" queueing_length_experimental="6.00"/>
        </lanes>
    </data>
    <data timestep="18.00">
        <lanes>
            <lane id="-840329606#2_0" queueing_time="0.00" queueing_length="0.00" queueing_length_experimental="6.70"/>
            <lane id="150872239_0" queueing_time="6.00" queueing_length="6.00" queueing_length_experimental="6.00"/>
        </lanes>
    </data>
    <data timestep="19.00">
        <lanes>
            <lane id="150872239_0" queueing_time="7.00" queueing_length="6.00" queueing_length_experimental="6.00"/>
        </lanes>
    </data>
    <data timestep="20.00">
        <lanes>
            <lane id="150872239_0" queueing_time="8.00" queueing_length="6.00" queueing_length_experimental="6.00"/>
        </lanes>
    </data>
    <data timestep="21.00">
        <lanes>
            <lane id="-840329606#2_0" queueing_time="0.00" queueing_length="0.00" queueing_length_experimental="6.70"/>
            <lane id="150872239_0" queueing_time="9.00" queueing_length="6.00" queueing_length_experimental="6.00"/>
        </lanes>
    </data>
    <data timestep="22.00">
        <lanes>
            <lane id="150872239_0" queueing_time="10.00" queueing_length="6.00" queueing_length_experimental="6.00"/>
        </lanes>
    </data>
    <data timestep="23.00">
        <lanes>
            <lane id="150872239_0" queueing_time="11.00" queueing_length="6.00" queueing_length_experimental="6.00"/>
        </lanes>
    </data>
    <data timestep="24.00">
        <lanes>
            <lane id="-840329606#2_0" queueing_time="0.00" queueing_length="0.00" queueing_length_experimental="6.70"/>
            <lane id="150872239_0" queueing_time="12.00" queueing_length="6.00" queueing_length_experimental="6.00"/>
        </lanes>
    </data>
    <data timestep="25.00">
        <lanes>
            <lane id="150872239_0" queueing_time="13.00" queueing_length="6.00" queueing_length_experimental="6.00"/>
        </lanes>
    </data>
    <data timestep="26.00">
        <lanes>
            <lane id="150872239_0" queueing_time="14.00" queueing_length="6.00" queueing_length_experimental="6.00"/>
        </lanes>
    </data>
    <data timestep="27.00">
        <lanes>
            <lane id="-840329606#2_0" queueing_time="0.00" queueing_length="0.00" queueing_length_experimental="6.70"/>
            <lane id="150872239_0" queueing_time="15.00" queueing_length="6.00" queueing_length_experimental="6.00"/>
        </lanes>
    </data>
    <data timestep="28.00">
        <lanes>
            <lane id="-840329606#2_0" queueing_time="0.00" queueing_length="0.00" queueing_length_experimental="5.32"/>
            <lane id="150872239_0" queueing_time="16.00" queueing_length="6.00" queueing_length_experimental="6.00"/>
        </lanes>
    </data>
    <data timestep="29.00">
        <lanes>
            <lane id="150872239_0" queueing_time="17.00" queueing_length="6.00" queueing_length_experimental="6.00"/>
        </lanes>
    </data>
    <data timestep="30.00">
        <lanes>
            <lane id="-840329606#2_0" queueing_time="0.00" queueing_length="0.00" queueing_length_experimental="6.70"/>
            <lane id="150872239_0" queueing_time="18.00" queueing_length="6.00" queueing_length_experimental="6.00"/>
        </lanes>
    </data>
    <data timestep="31.00">
        <lanes>
            <lane id="150872239_0" queueing_time="19.00" queueing_length="6.00" queueing_length_experimental="6.00"/>
        </lanes>
    </data>
    <data timestep="32.00">
        <lanes>
            <lane id="150872239_0" queueing_time="20.00" queueing_length="6.00" queueing_length_experimental="6.00"/>
        </lanes>
    </data>
    <data timestep="33.00">
        <lanes>
            <lane id="-840329606#2_0" queueing_time="0.00" queueing_length="0.00" queueing_length_experimental="6.70"/>
            <lane id="150872239_0" queueing_time="21.00" queueing_length="6.00" queueing_length_experimental="6.00"/>
        </lanes>
    </data>
    <data timestep="34.00">
        <lanes>
            <lane id="-840329606#2_0" queueing_time="0.00" queueing_length="0.00" queueing_length_experimental="5.38"/>
            <lane id="150872239_0" queueing_time="22.00" queueing_length="6.00" queueing_length_experimental="6.00"/>
            <lane id="156268076#1_0" queueing_time="0.00" queueing_length="0.00" queueing_length_experimental="20.85"/>
        </lanes>
    </data>
    <data timestep="35.00">
        <lanes>
            <lane id="150872239_0" queueing_time="23.00" queueing_length="6.00" queueing_length_experimental="6.00"/>
        </lanes>
    </data>
    <data timestep="36.00">
        <lanes>
            <lane id="-840329606#2_0" queueing_time="0.00" queueing_length="0.00" queueing_length_experimental="6.70"/>
            <lane id="150872239_0" queueing_time="24.00" queueing_length="6.00" queueing_length_experimental="6.00"/>
        </lanes>
    </data>
    <data timestep="37.00">
        <lanes>
            <lane id="-840329606#2_0" queueing_time="0.00" queueing_length="0.00" queueing_length_experimental="5.42"/>
            <lane id="150872239_0" queueing_time="25.00" queueing_length="6.00" queueing_length_experimental="6.00"/>
        </lanes>
    </data>
    <data timestep="38.00">
        <lanes>
            <lane id="150872239_0" queueing_time="26.00" queueing_length="6.00" queueing_length_experimental="6.00"/>
        </lanes>
    </data>
    <data timestep="39.00">
        <lanes>
            <lane id="-840329606#2_0" queueing_time="0.00" queueing_length="0.00" queueing_length_experimental="6.70"/>
            <lane id="150872239_0" queueing_time="27.00" queueing_length="6.00" queueing_length_experimental="6.00"/>
        </lanes>
    </data>
    <data timestep="40.00">
        <lanes>
            <lane id="150872239_0" queueing_time="28.00" queueing_length="6.00" queueing_length_experimental="6.00"/>
        </lanes>
    </data>
    <data timestep="41.00">
        <lanes>
            <lane id="150872239_0" queueing_time="29.00" queueing_length="6.00" queueing_length_experimental="6.00"/>
        </lanes>
    </data>
    <data timestep="42.00">
        <lanes>
            <lane id="-840329606#2_0" queueing_time="0.00" queueing_length="0.00" queueing_length_experimental="6.70"/>
            <lane id="150872239_0" queueing_time="30.00" queueing_length="6.00" queueing_length_experimental="6.00"/>
        </lanes>
    </data>
    <data timestep="43.00">
        <lanes>
            <lane id="150872239_0" queueing_time="31.00" queueing_length="6.00" queueing_length_experimental="6.00"/>
        </lanes>
    </data>
    <data timestep="44.00">
        <lanes>
            <lane id="150872239_0" queueing_time="32.00" queueing_length="6.00" queueing_length_experimental="6.00"/>
        </lanes>
    </data>
    <data timestep="45.00">
        <lanes>
            <lane id="-840329606#2_0" queueing_time="0.00" queueing_length="0.00" queueing_length_experimental="6.70"/>
            <lane id="150872239_0" queueing_time="33.00" queueing_length="6.00" queueing_length_experimental="6.00"/>
        </lanes>
    </data>
    <data timestep="46.00">
        <lanes>
            <lane id="150872239_0" queueing_time="34.00" queueing_length="6.00" queueing_length_experimental="6.00"/>
            <lane id="156268076#1_0" queueing_time="0.00" queueing_length="0.00" queueing_length_experimental="21.05"/>
        </lanes>
    </data>
    <data timestep="47.00">
        <lanes>
            <lane id="150872239_0" queueing_time="35.00" queueing_length="6.00" queueing_length_experimental="6.00"/>
        </lanes>
    </data>
    <data timestep="48.00">
        <lanes>
            <lane id="-840329606#2_0" queueing_time="0.00" queueing_length="0.00" queueing_length_experimental="6.70"/>
            <lane id="150872239_0" queueing_time="36.00" queueing_length="6.00" queueing_length_experimental="6.00"/>
        </lanes>
    </data>
    <data timestep="49.00">
        <lanes>
            <lane id="150872239_0" queueing_time="37.00" queueing_length="6.00" queueing_length_experimental="6.00"/>
        </lanes>
    </data>
    <data timestep="50.00">
        <lanes>
            <lane id="150872239_0" queueing_time="38.00" queueing_length="6.00" queueing_length_experimental="6.00"/>
        </lanes>
    </data>
    <data timestep="51.00">
        <lanes>
            <lane id="-840329606#2_0" queueing_time="0.00" queueing_length="0.00" queueing_length_experimental="6.70"/>
            <lane id="150872239_0" queueing_time="39.00" queueing_length="6.00" queueing_length_experimental="6.00"/>
        </lanes>
    </data>
    <data timestep="52.00">
        <lanes>
            <lane id="150872239_0" queueing_time="40.00" queueing_length="6.00" queueing_length_experimental="6.00"/>
            <lane id="156268076#1_0" queueing_time="0.00" queueing_length="0.00" queueing_length_experimental="20.86"/>
        </lanes>
    </data>
    <data timestep="53.00">
        <lanes>
            <lane id="150872239_0" queueing_time="41.00" queueing_length="6.00" queueing_length_experimental="6.00"/>
        </lanes>
    </data>
    <data timestep="54.00">
        <lanes>
            <lane id="-840329606#2_0" queueing_time="0.00" queueing_length="0.00" queueing_length_experimental="6.70"/>
            <lane id="150872239_0" queueing_time="42.00" queueing_length="6.00" queueing_length_experimental="6.00"/>
        </lanes>
    </data>
    <data timestep="55.00">
        <lanes>
            <lane id="150872239_0" queueing_time="43.00" queueing_length="6.00" queueing_length_experimental="6.00"/>
        </lanes>
    </data>
    <data timestep="56.00">
        <lanes>
            <lane id="150872239_0" queueing_time="44.00" queueing_length="6.00" queueing_length_experimental="6.00"/>
        </lanes>
    </data>
    <data timestep="57.00">
        <lanes>
            <lane id="-840329606#2_0" queueing_time="0.00" queueing_length="0.00" queueing_length_experimental="6.70"/>
            <lane id="150872239_0" queueing_time="45.00" queueing_length="6.00" queueing_length_experimental="6.00"/>
        </lanes>
    </data>
    <data timestep="58.00">
        <lanes>
            <lane id="150872239_0" queueing_time="46.00" queueing_length="6.00" queueing_length_experimental="6.00"/>
        </lanes>
    </data>
    <data timestep="59.00">
        <lanes>
            <lane id="150872239_0" queueing_time="47.00" queueing_length="6.00" queueing_length_experimental="6.00"/>
            <lane id="315703119#0_2" queueing_time="0.00" queueing_length="0.00" queueing_length_experimental="5.34"/>
        </lanes>
    </data>
    <data timestep="60.00">
        <lanes>
            <lane id="-840329606#2_0" queueing_time="0.00" queueing_length="0.00" queueing_length_experimental="6.70"/>
            <lane id="150872239_0" queueing_time="48.00" queueing_length="6.00" queueing_length_experimental="6.00"/>
            <lane id="315703119#0_2" queueing_time="0.00" queueing_length="0.00" queueing_length_experimental="5.21"/>
        </lanes>
    </data>
    <data timestep="61.00">
        <lanes>
            <lane id="150872239_0" queueing_time="49.00" queueing_length="6.00" queueing_length_experimental="6.00"/>
            <lane id="315703119#0_2" queueing_time="1.00" queueing_length="5.12" queueing_length_experimental="5.12"/>
        </lanes>
    </data>
    <data timestep="62.00">
        <lanes>
            <lane id="150872239_0" queueing_time="50.00" queueing_length="6.00" queueing_length_experimental="6.00"/>
            <lane id="315703119#0_2" queueing_time="2.00" queueing_length="5.10" queueing_length_experimental="5.10"/>
        </lanes>
    </data>
    <data timestep="63.00">
        <lanes>
            <lane id="-840329606#2_0" queueing_time="0.00" queueing_length="0.00" queueing_length_experimental="6.70"/>
            <lane id="150872239_0" queueing_time="51.00" queueing_length="6.00" queueing_length_experimental="6.00"/>
            <lane id="315703119#0_2" queueing_time="3.00" queueing_length="5.10" queueing_length_experimental="5.10"/>
        </lanes>
    </data>
    <data timestep="64.00">
        <lanes>
            <lane id="-840329606#2_0" queueing_time="0.00" queueing_length="0.00" queueing_length_experimental="5.31"/>
            <lane id="150872239_0" queueing_time="52.00" queueing_length="6.00" queueing_length_experimental="6.00"/>
            <lane id="315703119#0_2" queueing_time="4.00" queueing_length="5.10" queueing_length_experimental="5.10"/>
        </lanes>
    </data>
    <data timestep="65.00">
        <lanes>
            <lane id="150872239_0" queueing_time="53.00" queueing_length="6.00" queueing_length_experimental="6.00"/>
            <lane id="315703119#0_2" queueing_time="5.00" queueing_length="5.10" queueing_length_experimental="5.10"/>
        </lanes>
    </data>
    <data timestep="66.00">
        <lanes>
            <lane id="-840329606#2_0" queueing_time="0.00" queueing_length="0.00" queueing_length_experimental="6.70"/>
            <lane id="150872239_0" queueing_time="54.00" queueing_length="6.00" queueing_length_experimental="6.00"/>
            <lane id="315703119#0_2" queueing_time="6.00" queueing_length="5.10" queueing_length_experimental="5.10"/>
        </lanes>
    </data>
    <data timestep="67.00">
        <lanes>
            <lane id="150872239_0" queueing_time="55.00" queueing_length="6.00" queueing_length_experimental="6.00"/>
            <lane id="315703119#0_0" queueing_time="0.00" queueing_length="0.00" queueing_length_experimental="5.36"/>
            <lane id="315703119#0_2" queueing_time="7.00" queueing_length="5.10" queueing_length_experimental="5.10"/>
        </lanes>
    </data>
    <data timestep="68.00">
        <lanes>
            <lane id="150872239_0" queueing_time="56.00" queueing_length="6.00" queueing_length_experimental="6.00"/>
            <lane id="315703119#0_0" queueing_time="0.00" queueing_length="0.00" queueing_length_experimental="5.16"/>
            <lane id="315703119#0_2" queueing_time="8.00" queueing_length="5.10" queueing_length_experimental="5.10"/>
        </lanes>
    </data>
    <data timestep="69.00">
        <lanes>
            <lane id="-840329606#2_0" queueing_time="0.00" queueing_length="0.00" queueing_length_experimental="6.70"/>
            <lane id="150872239_0" queueing_time="57.00" queueing_length="6.00" queueing_length_experimental="6.00"/>
            <lane id="315703119#0_0" queueing_time="1.00" queueing_length="5.12" queueing_length_experimental="5.12"/>
            <lane id="315703119#0_2" queueing_time="9.00" queueing_length="5.10" queueing_length_experimental="5.10"/>
        </lanes>
    </data>
    <data timestep="70.00">
        <lanes>
            <lane id="150872239_0" queueing_time="58.00" queueing_length="6.00" queueing_length_experimental="6.00"/>
            <lane id="315703119#0_0" queueing_time="2.00" queueing_length="5.10" queueing_length_experimental="5.10"/>
            <lane id="315703119#0_2" queueing_time="10.00" queueing_length="5.10" queueing_length_experimental="5.10"/>
        </lanes>
    </data>
    <data timestep="71.00">
        <lanes>
            <lane id="150872239_0" queueing_time="59.00" queueing_length="6.00" queueing_length_experimental="6.00"/>
            <lane id="315703119#0_2" queueing_time="11.00" queueing_length="5.10" queueing_length_experimental="5.10"/>
        </lanes>
    </data>
    <data timestep="72.00">
        <lanes>
            <lane id="-840329606#2_0" queueing_time="0.00" queueing_length="0.00" queueing_length_experimental="6.70"/>
            <lane id="150872239_0" queueing_time="60.00" queueing_length="6.00" queueing_length_experimental="6.00"/>
            <lane id="315703119#0_2" queueing_time="12.00" queueing_length="5.10" queueing_length_experimental="5.10"/>
        </lanes>
    </data>
    <data timestep="73.00">
        <lanes>
            <lane id="150872239_0" queueing_time="61.00" queueing_length="6.00" queueing_length_experimental="6.00"/>
            <lane id="315703119#0_2" queueing_time="13.00" queueing_length="5.10" queueing_length_experimental="5.10"/>
        </lanes>
    </data>
    <data timestep="74.00">
        <lanes>
            <lane id="150872239_0" queueing_time="62.00" queueing_length="6.00" queueing_length_experimental="6.00"/>
            <lane id="315703119#0_2" queueing_time="14.00" queueing_length="5.10" queueing_length_experimental="5.10"/>
        </lanes>
    </data>
    <data timestep="75.00">
        <lanes>
            <lane id="-840329606#2_0" queueing_time="0.00" queueing_length="0.00" queueing_length_experimental="6.70"/>
            <lane id="150872239_0" queueing_time="63.00" queueing_length="6.00" queueing_length_experimental="6.00"/>
            <lane id="315703119#0_2" queueing_time="15.00" queueing_length="5.10" queueing_length_experimental="5.10"/>
        </lanes>
    </data>
    <data timestep="76.00">
        <lanes>
            <lane id="150872239_0" queueing_time="64.00" queueing_length="6.00" queueing_length_experimental="6.00"/>
            <lane id="315703119#0_2" queueing_time="16.00" queueing_length="5.10" queueing_length_experimental="5.10"/>
        </lanes>
    </data>
    <data timestep="77.00">
        <lanes>
            <lane id="150872239_0" queueing_time="65.00" queueing_length="6.00" queueing_length_experimental="6.00"/>
            <lane id="315703119#0_2" queueing_time="17.00" queueing_length="5.10" queueing_length_experimental="5.10"/>
        </lanes>
    </data>
    <data timestep="78.00">
        <lanes>
            <lane id="-840329606#2_0" queueing_time="0.00" queueing_length="0.00" queueing_length_experimental="6.70"/>
            <lane id="150872239_0" queueing_time="66.00" queueing_length="6.00" queueing_length_experimental="6.00"/>
            <lane id="315703119#0_2" queueing_time="18.00" queueing_length="5.10" queueing_length_experimental="5.10"/>
        </lanes>
    </data>
    <data timestep="79.00">
        <lanes>
            <lane id="150872239_0" queueing_time="67.00" queueing_length="6.00" queueing_length_experimental="6.00"/>
            <lane id="315703119#0_2" queueing_time="19.00" queueing_length="5.10" queueing_length_experimental="12.76"/>
        </lanes>
    </data>
    <data timestep="80.00">
        <lanes>
            <lane id="150872239_0" queueing_time="68.00" queueing_length="6.00" queueing_length_experimental="6.00"/>
            <lane id="315703119#0_2" queueing_time="20.00" queueing_length="12.66" queueing_length_experimental="12.66"/>
        </lanes>
    </data>
    <data timestep="81.00">
        <lanes>
            <lane id="-840329606#2_0" queueing_time="0.00" queueing_length="0.00" queueing_length_experimental="6.70"/>
            <lane id="150872239_0" queueing_time="69.00" queueing_length="6.00" queueing_length_experimental="6.00"/>
            <lane id="315703119#0_0" queueing_time="1.00" queueing_length="5.12" queueing_length_experimental="5.12"/>
            <lane id="315703119#0_2" queueing_time="21.00" queueing_length="12.60" queueing_length_experimental="20.18"/>
        </lanes>
    </data>
    <data timestep="82.00">
        <lanes>
            <lane id="150872239_0" queueing_time="70.00" queueing_length="6.00" queueing_length_experimental="6.00"/>
            <lane id="156268076#1_0" queueing_time="0.00" queueing_length="0.00" queueing_length_experimental="20.88"/>
            <lane id="315703119#0_0" queueing_time="2.00" queueing_length="5.10" queueing_length_experimental="5.10"/>
            <lane id="315703119#0_2" queueing_time="22.00" queueing_length="20.14" queueing_length_experimental="20.14"/>
        </lanes>
    </data>
    <data timestep="83.00">
        <lanes>
            <lane id="150872239_0" queueing_time="71.00" queueing_length="6.00" queueing_length_experimental="6.00"/>
            <lane id="315703119#0_0" queueing_time="3.00" queueing_length="5.10" queueing_length_experimental="5.10"/>
            <lane id="315703119#0_2" queueing_time="23.00" queueing_length="20.11" queueing_length_experimental="20.11"/>
        </lanes>
    </data>
    <data timestep="84.00">
        <lanes>
            <lane id="-840329606#2_0" queueing_time="0.00" queueing_length="0.00" queueing_length_experimental="6.70"/>
            <lane id="150872239_0" queueing_time="72.00" queueing_length="6.00" queueing_length_experimental="6.00"/>
            <lane id="315703119#0_0" queueing_time="4.00" queueing_length="5.10" queueing_length_experimental="5.10"/>
            <lane id="315703119#0_2" queueing_time="24.00" queueing_length="20.10" queueing_length_experimental="20.10"/>
        </lanes>
    </data>
    <data timestep="85.00">
        <lanes>
            <lane id="150872239_0" queueing_time="73.00" queueing_length="6.00" queueing_length_experimental="6.00"/>
            <lane id="315703119#0_0" queueing_time="5.00" queueing_length="5.10" queueing_length_experimental="5.10"/>
            <lane id="315703119#0_2" queueing_time="25.00" queueing_length="20.10" queueing_length_experimental="20.10"/>
        </lanes>
    </data>
    <data timestep="86.00">
        <lanes>
            <lane id="150872239_0" queueing_time="74.00" queueing_length="6.00" queueing_length_experimental="6.00"/>
            <lane id="315703119#0_0" queueing_time="6.00" queueing_length="5.10" queueing_length_experimental="5.10"/>
            <lane id="315703119#0_2" queueing_time="26.00" queueing_length="20.10" queueing_length_experimental="20.10"/>
        </lanes>
    </data>
    <data timestep="87.00">
        <lanes>
            <lane id="-840329606#2_0" queueing_time="0.00" queueing_length="0.00" queueing_length_experimental="6.70"/>
            <lane id="150872239_0" queueing_time="75.00" queueing_length="6.00" queueing_length_experimental="6.00"/>
            <lane id="315703119#0_0" queueing_time="7.00" queueing_length="5.10" queueing_length_experimental="5.10"/>
            <lane id="315703119#0_1" queueing_time="0.00" queueing_length="0.00" queueing_length_experimental="5.10"/>
            <lane id="315703119#0_2" queueing_time="27.00" queueing_length="20.10" queueing_length_experimental="20.10"/>
        </lanes>
    </data>
    <data timestep="88.00">
        <lanes>
            <lane id="150872239_0" queueing_time="76.00" queueing_length="6.00" queueing_length_experimental="6.00"/>
            <lane id="315703119#0_0" queueing_time="8.00" queueing_length="5.10" queueing_length_experimental="5.10"/>
            <lane id="315703119#0_1" queueing_time="1.00" queueing_length="5.10" queueing_length_experimental="5.10"/>
            <lane id="315703119#0_2" queueing_time="28.00" queueing_length="20.10" queueing_length_experimental="20.10"/>
        </lanes>
    </data>
    <data timestep="89.00">
        <lanes>
            <lane id="150872239_0" queueing_time="77.00" queueing_length="6.00" queueing_length_experimental="6.00"/>
            <lane id="315703119#0_0" queueing_time="9.00" queueing_length="5.10" queueing_length_experimental="5.10"/>
            <lane id="315703119#0_1" queueing_time="2.00" queueing_length="5.10" queueing_length_experimental="5.10"/>
            <lane id="315703119#0_2" queueing_time="29.00" queueing_length="20.10" queueing_length_experimental="20.10"/>
        </lanes>
    </data>
    <data timestep="90.00">
        <lanes>
            <lane id="-840329606#2_0" queueing_time="0.00" queueing_length="0.00" queueing_length_experimental="6.70"/>
            <lane id="150872239_0" queueing_time="78.00" queueing_length="6.00" queueing_length_experimental="6.00"/>
            <lane id="315703119#0_0" queueing_time="10.00" queueing_length="5.10" queueing_length_experimental="5.10"/>
            <lane id="315703119#0_1" queueing_time="3.00" queueing_length="5.10" queueing_length_experimental="5.10"/>
            <lane id="315703119#0_2" queueing_time="30.00" queueing_length="20.10" queueing_length_experimental="20.10"/>
        </lanes>
    </data>
    <data timestep="91.00">
        <lanes>
            <lane id="150872239_0" queueing_time="79.00" queueing_length="6.00" queueing_length_experimental="6.00"/>
            <lane id="315703119#0_0" queueing_time="11.00" queueing_length="5.10" queueing_length_experimental="5.10"/>
            <lane id="315703119#0_1" queueing_time="4.00" queueing_length="5.10" queueing_length_experimental="5.10"/>
            <lane id="315703119#0_2" queueing_time="31.00" queueing_length="20.10" queueing_length_experimental="20.10"/>
        </lanes>
    </data>
    <data timestep="92.00">
        <lanes>
            <lane id="150872239_0" queueing_time="80.00" queueing_length="6.00" queueing_length_experimental="6.00"/>
            <lane id="315703119#0_1" queueing_time="5.00" queueing_length="5.10" queueing_length_experimental="5.10"/>
            <lane id="315703119#0_2" queueing_time="32.00" queueing_length="20.10" queueing_length_experimental="20.10"/>
        </lanes>
    </data>
    <data timestep="93.00">
        <lanes>
            <lane id="-840329606#2_0" queueing_time="0.00" queueing_length="0.00" queueing_length_experimental="6.70"/>
            <lane id="150872239_0" queueing_time="81.00" queueing_length="6.00" queueing_length_experimental="6.00"/>
            <lane id="315703119#0_1" queueing_time="6.00" queueing_length="5.10" queueing_length_experimental="5.10"/>
            <lane id="315703119#0_2" queueing_time="33.00" queueing_length="20.10" queueing_length_experimental="20.10"/>
        </lanes>
    </data>
    <data timestep="94.00">
        <lanes>
            <lane id="150872239_0" queueing_time="82.00" queueing_length="6.00" queueing_length_experimental="6.00"/>
            <lane id="315703119#0_1" queueing_time="7.00" queueing_length="5.10" queueing_length_experimental="5.10"/>
            <lane id="315703119#0_2" queueing_time="34.00" queueing_length="20.10" queueing_length_experimental="27.82"/>
        </lanes>
    </data>
    <data timestep="95.00">
        <lanes>
            <lane id="150872239_0" queueing_time="83.00" queueing_length="6.00" queueing_length_experimental="6.00"/>
            <lane id="315703119#0_1" queueing_time="8.00" queueing_length="5.10" queueing_length_experimental="5.10"/>
            <lane id="315703119#0_2" queueing_time="35.00" queueing_length="20.10" queueing_length_experimental="27.64"/>
        </lanes>
    </data>
    <data timestep="96.00">
        <lanes>